24778933
  -OEChem-06192514362D

134133  0     1  0  0  0  0  0999 V2000
    6.3301   -4.6270    0.0000 P   0  0  3  0  0  0  0  0  0  0  0  0
    5.4641   -5.1270    0.0000 O   0  0  0  0  0  0  0  0  0  0  0  0
    9.7942   -4.6270    0.0000 O   0  0  0  0  0  0  0  0  0  0  0  0
    7.1962   -4.1270    0.0000 O   0  0  0  0  0  0  0  0  0  0  0  0
    9.7942   -2.6270    0.0000 O   0  0  0  0  0  0  0  0  0  0  0  0
   10.6603   -3.1270    0.0000 O   0  0  0  0  0  0  0  0  0  0  0  0
    5.8301   -3.7610    0.0000 O   0  5  0  0  0  0  0  0  0  0  0  0
    6.8301   -5.4930    0.0000 O   0  0  0  0  0  0  0  0  0  0  0  0
    8.9282   -1.1270    0.0000 O   0  0  0  0  0  0  0  0  0  0  0  0
    2.8660   -4.6270    0.0000 N   0  3  0  0  0  0  0  0  0  0  0  0
   16.7224   -4.6270    0.0000 C   0  0  0  0  0  0  0  0  0  0  0  0
   17.5885   -4.1270    0.0000 C   0  0  0  0  0  0  0  0  0  0  0  0
   15.8564   -4.1270    0.0000 C   0  0  0  0  0  0  0  0  0  0  0  0
   18.4545   -4.6270    0.0000 C   0  0  0  0  0  0  0  0  0  0  0  0
   14.9904   -4.6270    0.0000 C   0  0  0  0  0  0  0  0  0  0  0  0
   19.3205   -4.1270    0.0000 C   0  0  0  0  0  0  0  0  0  0  0  0
   14.1244   -4.1270    0.0000 C   0  0  0  0  0  0  0  0  0  0  0  0
   20.1865   -4.6270    0.0000 C   0  0  0  0  0  0  0  0  0  0  0  0
   13.2583   -4.6270    0.0000 C   0  0  0  0  0  0  0  0  0  0  0  0
   21.0526   -4.1270    0.0000 C   0  0  0  0  0  0  0  0  0  0  0  0
    3.7321   -5.1270    0.0000 C   0  0  0  0  0  0  0  0  0  0  0  0
   12.3923   -4.1270    0.0000 C   0  0  0  0  0  0  0  0  0  0  0  0
   21.9186   -4.6270    0.0000 C   0  0  0  0  0  0  0  0  0  0  0  0
    2.0000   -4.1270    0.0000 C   0  0  0  0  0  0  0  0  0  0  0  0
    2.3660   -5.4930    0.0000 C   0  0  0  0  0  0  0  0  0  0  0  0
    3.3660   -3.7610    0.0000 C   0  0  0  0  0  0  0  0  0  0  0  0
    4.5981   -4.6270    0.0000 C   0  0  0  0  0  0  0  0  0  0  0  0
   11.5263   -4.6270    0.0000 C   0  0  0  0  0  0  0  0  0  0  0  0
   22.7846   -4.1270    0.0000 C   0  0  0  0  0  0  0  0  0  0  0  0
   11.5263    1.3730    0.0000 C   0  0  0  0  0  0  0  0  0  0  0  0
   12.3923    1.8730    0.0000 C   0  0  0  0  0  0  0  0  0  0  0  0
   11.5263    0.3730    0.0000 C   0  0  0  0  0  0  0  0  0  0  0  0
   17.5885    4.8730    0.0000 C   0  0  0  0  0  0  0  0  0  0  0  0
   16.7224    4.3730    0.0000 C   0  0  0  0  0  0  0  0  0  0  0  0
   12.3923    2.8730    0.0000 C   0  0  0  0  0  0  0  0  0  0  0  0
   18.4545    4.3730    0.0000 C   0  0  0  0  0  0  0  0  0  0  0  0
   15.8564    4.8730    0.0000 C   0  0  0  0  0  0  0  0  0  0  0  0
   10.6603   -4.1270    0.0000 C   0  0  0  0  0  0  0  0  0  0  0  0
   10.6603   -0.1270    0.0000 C   0  0  0  0  0  0  0  0  0  0  0  0
    8.9282   -4.1270    0.0000 C   0  0  1  0  0  0  0  0  0  0  0  0
   23.6506   -4.6270    0.0000 C   0  0  0  0  0  0  0  0  0  0  0  0
   13.2583    3.3730    0.0000 C   0  0  0  0  0  0  0  0  0  0  0  0
   19.3205    4.8730    0.0000 C   0  0  0  0  0  0  0  0  0  0  0  0
   14.9904    4.3730    0.0000 C   0  0  0  0  0  0  0  0  0  0  0  0
   10.6603   -1.1270    0.0000 C   0  0  0  0  0  0  0  0  0  0  0  0
    8.0622   -4.6270    0.0000 C   0  0  0  0  0  0  0  0  0  0  0  0
    8.9282   -3.1270    0.0000 C   0  0  0  0  0  0  0  0  0  0  0  0
   13.2583    4.3730    0.0000 C   0  0  0  0  0  0  0  0  0  0  0  0
   20.1865    4.3730    0.0000 C   0  0  0  0  0  0  0  0  0  0  0  0
   14.1244    4.8730    0.0000 C   0  0  0  0  0  0  0  0  0  0  0  0
    9.7942   -1.6270    0.0000 C   0  0  0  0  0  0  0  0  0  0  0  0
   21.0526    4.8730    0.0000 C   0  0  0  0  0  0  0  0  0  0  0  0
   16.3239   -5.1019    0.0000 H   0  0  0  0  0  0  0  0  0  0  0  0
   17.1210   -5.1019    0.0000 H   0  0  0  0  0  0  0  0  0  0  0  0
   17.9870   -3.6520    0.0000 H   0  0  0  0  0  0  0  0  0  0  0  0
   17.1899   -3.6520    0.0000 H   0  0  0  0  0  0  0  0  0  0  0  0
   16.2549   -3.6520    0.0000 H   0  0  0  0  0  0  0  0  0  0  0  0
   15.4579   -3.6520    0.0000 H   0  0  0  0  0  0  0  0  0  0  0  0
   18.0560   -5.1019    0.0000 H   0  0  0  0  0  0  0  0  0  0  0  0
   18.8530   -5.1019    0.0000 H   0  0  0  0  0  0  0  0  0  0  0  0
   14.5919   -5.1019    0.0000 H   0  0  0  0  0  0  0  0  0  0  0  0
   15.3889   -5.1019    0.0000 H   0  0  0  0  0  0  0  0  0  0  0  0
   19.7190   -3.6520    0.0000 H   0  0  0  0  0  0  0  0  0  0  0  0
   18.9220   -3.6520    0.0000 H   0  0  0  0  0  0  0  0  0  0  0  0
   14.5229   -3.6520    0.0000 H   0  0  0  0  0  0  0  0  0  0  0  0
   13.7258   -3.6520    0.0000 H   0  0  0  0  0  0  0  0  0  0  0  0
   19.7880   -5.1019    0.0000 H   0  0  0  0  0  0  0  0  0  0  0  0
   20.5851   -5.1019    0.0000 H   0  0  0  0  0  0  0  0  0  0  0  0
   12.8598   -5.1019    0.0000 H   0  0  0  0  0  0  0  0  0  0  0  0
   13.6569   -5.1019    0.0000 H   0  0  0  0  0  0  0  0  0  0  0  0
   21.4511   -3.6520    0.0000 H   0  0  0  0  0  0  0  0  0  0  0  0
   20.6540   -3.6520    0.0000 H   0  0  0  0  0  0  0  0  0  0  0  0
    3.3335   -5.6019    0.0000 H   0  0  0  0  0  0  0  0  0  0  0  0
    4.1306   -5.6019    0.0000 H   0  0  0  0  0  0  0  0  0  0  0  0
   12.7908   -3.6520    0.0000 H   0  0  0  0  0  0  0  0  0  0  0  0
   11.9938   -3.6520    0.0000 H   0  0  0  0  0  0  0  0  0  0  0  0
   21.5201   -5.1019    0.0000 H   0  0  0  0  0  0  0  0  0  0  0  0
   22.3171   -5.1019    0.0000 H   0  0  0  0  0  0  0  0  0  0  0  0
    2.3100   -3.5901    0.0000 H   0  0  0  0  0  0  0  0  0  0  0  0
    1.4631   -3.8170    0.0000 H   0  0  0  0  0  0  0  0  0  0  0  0
    1.6900   -4.6639    0.0000 H   0  0  0  0  0  0  0  0  0  0  0  0
    1.8291   -5.1830    0.0000 H   0  0  0  0  0  0  0  0  0  0  0  0
    2.0560   -6.0300    0.0000 H   0  0  0  0  0  0  0  0  0  0  0  0
    2.9030   -5.8030    0.0000 H   0  0  0  0  0  0  0  0  0  0  0  0
    3.9030   -4.0710    0.0000 H   0  0  0  0  0  0  0  0  0  0  0  0
    3.6760   -3.2240    0.0000 H   0  0  0  0  0  0  0  0  0  0  0  0
    2.8291   -3.4510    0.0000 H   0  0  0  0  0  0  0  0  0  0  0  0
    4.9966   -4.1520    0.0000 H   0  0  0  0  0  0  0  0  0  0  0  0
    4.1996   -4.1520    0.0000 H   0  0  0  0  0  0  0  0  0  0  0  0
   11.1278   -5.1019    0.0000 H   0  0  0  0  0  0  0  0  0  0  0  0
   11.9248   -5.1019    0.0000 H   0  0  0  0  0  0  0  0  0  0  0  0
   23.1831   -3.6520    0.0000 H   0  0  0  0  0  0  0  0  0  0  0  0
   22.3861   -3.6520    0.0000 H   0  0  0  0  0  0  0  0  0  0  0  0
   11.3142    1.9556    0.0000 H   0  0  0  0  0  0  0  0  0  0  0  0
   10.9157    1.2654    0.0000 H   0  0  0  0  0  0  0  0  0  0  0  0
   12.6044    1.2904    0.0000 H   0  0  0  0  0  0  0  0  0  0  0  0
   13.0029    1.9807    0.0000 H   0  0  0  0  0  0  0  0  0  0  0  0
   11.7383   -0.2096    0.0000 H   0  0  0  0  0  0  0  0  0  0  0  0
   12.1369    0.4807    0.0000 H   0  0  0  0  0  0  0  0  0  0  0  0
   17.9870    5.3480    0.0000 H   0  0  0  0  0  0  0  0  0  0  0  0
   17.1899    5.3480    0.0000 H   0  0  0  0  0  0  0  0  0  0  0  0
   16.3239    3.8981    0.0000 H   0  0  0  0  0  0  0  0  0  0  0  0
   17.1210    3.8981    0.0000 H   0  0  0  0  0  0  0  0  0  0  0  0
   12.1803    3.4556    0.0000 H   0  0  0  0  0  0  0  0  0  0  0  0
   11.7817    2.7654    0.0000 H   0  0  0  0  0  0  0  0  0  0  0  0
   18.0560    3.8981    0.0000 H   0  0  0  0  0  0  0  0  0  0  0  0
   18.8530    3.8981    0.0000 H   0  0  0  0  0  0  0  0  0  0  0  0
   16.2549    5.3480    0.0000 H   0  0  0  0  0  0  0  0  0  0  0  0
   15.4579    5.3480    0.0000 H   0  0  0  0  0  0  0  0  0  0  0  0
   10.4482    0.4556    0.0000 H   0  0  0  0  0  0  0  0  0  0  0  0
   10.0497   -0.2346    0.0000 H   0  0  0  0  0  0  0  0  0  0  0  0
    9.4651   -3.8170    0.0000 H   0  0  0  0  0  0  0  0  0  0  0  0
   23.3406   -5.1639    0.0000 H   0  0  0  0  0  0  0  0  0  0  0  0
   24.1876   -4.9370    0.0000 H   0  0  0  0  0  0  0  0  0  0  0  0
   23.9606   -4.0901    0.0000 H   0  0  0  0  0  0  0  0  0  0  0  0
   13.4704    2.7904    0.0000 H   0  0  0  0  0  0  0  0  0  0  0  0
   13.8689    3.4807    0.0000 H   0  0  0  0  0  0  0  0  0  0  0  0
   19.7190    5.3480    0.0000 H   0  0  0  0  0  0  0  0  0  0  0  0
   18.9220    5.3480    0.0000 H   0  0  0  0  0  0  0  0  0  0  0  0
   14.5919    3.8981    0.0000 H   0  0  0  0  0  0  0  0  0  0  0  0
   15.3889    3.8981    0.0000 H   0  0  0  0  0  0  0  0  0  0  0  0
   10.8723   -1.7096    0.0000 H   0  0  0  0  0  0  0  0  0  0  0  0
   11.2708   -1.0193    0.0000 H   0  0  0  0  0  0  0  0  0  0  0  0
    7.6637   -5.1019    0.0000 H   0  0  0  0  0  0  0  0  0  0  0  0
    8.4607   -5.1019    0.0000 H   0  0  0  0  0  0  0  0  0  0  0  0
    8.7162   -2.5444    0.0000 H   0  0  0  0  0  0  0  0  0  0  0  0
    8.3176   -3.2347    0.0000 H   0  0  0  0  0  0  0  0  0  0  0  0
   12.7214    4.6830    0.0000 H   0  0  0  0  0  0  0  0  0  0  0  0
   19.7880    3.8981    0.0000 H   0  0  0  0  0  0  0  0  0  0  0  0
   20.5851    3.8981    0.0000 H   0  0  0  0  0  0  0  0  0  0  0  0
   14.1244    5.4930    0.0000 H   0  0  0  0  0  0  0  0  0  0  0  0
   21.3626    4.3361    0.0000 H   0  0  0  0  0  0  0  0  0  0  0  0
   21.5895    5.1830    0.0000 H   0  0  0  0  0  0  0  0  0  0  0  0
   20.7426    5.4100    0.0000 H   0  0  0  0  0  0  0  0  0  0  0  0
  1  2  1  0  0  0  0
  1  4  1  0  0  0  0
  1  7  1  0  0  0  0
  1  8  2  0  0  0  0
  2 27  1  0  0  0  0
  3 38  1  0  0  0  0
 40  3  1  1  0  0  0
  4 46  1  0  0  0  0
  5 47  1  0  0  0  0
  5 51  1  0  0  0  0
  6 38  2  0  0  0  0
  9 51  2  0  0  0  0
 10 21  1  0  0  0  0
 10 24  1  0  0  0  0
 10 25  1  0  0  0  0
 10 26  1  0  0  0  0
 11 12  1  0  0  0  0
 11 13  1  0  0  0  0
 11 53  1  0  0  0  0
 11 54  1  0  0  0  0
 12 14  1  0  0  0  0
 12 55  1  0  0  0  0
 12 56  1  0  0  0  0
 13 15  1  0  0  0  0
 13 57  1  0  0  0  0
 13 58  1  0  0  0  0
 14 16  1  0  0  0  0
 14 59  1  0  0  0  0
 14 60  1  0  0  0  0
 15 17  1  0  0  0  0
 15 61  1  0  0  0  0
 15 62  1  0  0  0  0
 16 18  1  0  0  0  0
 16 63  1  0  0  0  0
 16 64  1  0  0  0  0
 17 19  1  0  0  0  0
 17 65  1  0  0  0  0
 17 66  1  0  0  0  0
 18 20  1  0  0  0  0
 18 67  1  0  0  0  0
 18 68  1  0  0  0  0
 19 22  1  0  0  0  0
 19 69  1  0  0  0  0
 19 70  1  0  0  0  0
 20 23  1  0  0  0  0
 20 71  1  0  0  0  0
 20 72  1  0  0  0  0
 21 27  1  0  0  0  0
 21 73  1  0  0  0  0
 21 74  1  0  0  0  0
 22 28  1  0  0  0  0
 22 75  1  0  0  0  0
 22 76  1  0  0  0  0
 23 29  1  0  0  0  0
 23 77  1  0  0  0  0
 23 78  1  0  0  0  0
 24 79  1  0  0  0  0
 24 80  1  0  0  0  0
 24 81  1  0  0  0  0
 25 82  1  0  0  0  0
 25 83  1  0  0  0  0
 25 84  1  0  0  0  0
 26 85  1  0  0  0  0
 26 86  1  0  0  0  0
 26 87  1  0  0  0  0
 27 88  1  0  0  0  0
 27 89  1  0  0  0  0
 28 38  1  0  0  0  0
 28 90  1  0  0  0  0
 28 91  1  0  0  0  0
 29 41  1  0  0  0  0
 29 92  1  0  0  0  0
 29 93  1  0  0  0  0
 30 31  1  0  0  0  0
 30 32  1  0  0  0  0
 30 94  1  0  0  0  0
 30 95  1  0  0  0  0
 31 35  1  0  0  0  0
 31 96  1  0  0  0  0
 31 97  1  0  0  0  0
 32 39  1  0  0  0  0
 32 98  1  0  0  0  0
 32 99  1  0  0  0  0
 33 34  1  0  0  0  0
 33 36  1  0  0  0  0
 33100  1  0  0  0  0
 33101  1  0  0  0  0
 34 37  1  0  0  0  0
 34102  1  0  0  0  0
 34103  1  0  0  0  0
 35 42  1  0  0  0  0
 35104  1  0  0  0  0
 35105  1  0  0  0  0
 36 43  1  0  0  0  0
 36106  1  0  0  0  0
 36107  1  0  0  0  0
 37 44  1  0  0  0  0
 37108  1  0  0  0  0
 37109  1  0  0  0  0
 39 45  1  0  0  0  0
 39110  1  0  0  0  0
 39111  1  0  0  0  0
 40 46  1  0  0  0  0
 40 47  1  0  0  0  0
 40112  1  0  0  0  0
 41113  1  0  0  0  0
 41114  1  0  0  0  0
 41115  1  0  0  0  0
 42 48  1  0  0  0  0
 42116  1  0  0  0  0
 42117  1  0  0  0  0
 43 49  1  0  0  0  0
 43118  1  0  0  0  0
 43119  1  0  0  0  0
 44 50  1  0  0  0  0
 44120  1  0  0  0  0
 44121  1  0  0  0  0
 45 51  1  0  0  0  0
 45122  1  0  0  0  0
 45123  1  0  0  0  0
 46124  1  0  0  0  0
 46125  1  0  0  0  0
 47126  1  0  0  0  0
 47127  1  0  0  0  0
 48 50  2  0  0  0  0
 48128  1  0  0  0  0
 49 52  1  0  0  0  0
 49129  1  0  0  0  0
 49130  1  0  0  0  0
 50131  1  0  0  0  0
 52132  1  0  0  0  0
 52133  1  0  0  0  0
 52134  1  0  0  0  0
M  CHG  2   7  -1  10   1
M  END
> <PUBCHEM_COMPOUND_CID>
24778933

> <PUBCHEM_COMPOUND_CANONICALIZED>
1

> <PUBCHEM_CACTVS_COMPLEXITY>
899

> <PUBCHEM_CACTVS_HBOND_ACCEPTOR>
8

> <PUBCHEM_CACTVS_HBOND_DONOR>
0

> <PUBCHEM_CACTVS_ROTATABLE_BOND>
41

> <PUBCHEM_CACTVS_SUBSKEYS>
AAADcfB+PAIAAAAAAAAAAAAAAAAAAAAAAAAAAAAAAAAAAAAAAAAAHgAAACAACBThgAYCCAMABRCIQCDSCIAAAAAgAAAICAEIAAgDABIAAQACAAAFgAAaAAOIyKCAAAAAAAAAAAAAAAAAAAAAAAAAAAAAAA==

> <PUBCHEM_IUPAC_OPENEYE_NAME>
[(2R)-2-hexadecanoyloxy-3-[(Z)-octadec-9-enoyl]oxy-propyl] 2-(trimethylammonio)ethyl phosphate

> <PUBCHEM_IUPAC_CAS_NAME>
[(2R)-2-(1-oxohexadecoxy)-3-[(Z)-1-oxooctadec-9-enoxy]propyl] 2-(trimethylammonio)ethyl phosphate

> <PUBCHEM_IUPAC_NAME_MARKUP>
[(2<I>R</I>)-2-hexadecanoyloxy-3-[(<I>Z</I>)-octadec-9-enoyl]oxypropyl] 2-(trimethylazaniumyl)ethyl phosphate

> <PUBCHEM_IUPAC_NAME>
[(2R)-2-hexadecanoyloxy-3-[(Z)-octadec-9-enoyl]oxypropyl] 2-(trimethylazaniumyl)ethyl phosphate

> <PUBCHEM_IUPAC_SYSTEMATIC_NAME>
[(2R)-2-hexadecanoyloxy-3-[(Z)-octadec-9-enoyl]oxy-propyl] 2-(trimethylazaniumyl)ethyl phosphate

> <PUBCHEM_IUPAC_TRADITIONAL_NAME>
[(2R)-2-hexadecanoyloxy-3-[(Z)-octadec-9-enoyl]oxy-propyl] 2-(trimethylammonio)ethyl phosphate

> <PUBCHEM_IUPAC_INCHI>
InChI=1S/C42H82NO8P/c1-6-8-10-12-14-16-18-20-21-23-24-26-28-30-32-34-41(44)48-38-40(39-50-52(46,47)49-37-36-43(3,4)5)51-42(45)35-33-31-29-27-25-22-19-17-15-13-11-9-7-2/h20-21,40H,6-19,22-39H2,1-5H3/b21-20-/t40-/m1/s1

> <PUBCHEM_IUPAC_INCHIKEY>
RRVPPYNAZJRZFR-VYOBOKEXSA-N

> <PUBCHEM_XLOGP3_AA>
13.6

> <PUBCHEM_EXACT_MASS>
759.57780557

> <PUBCHEM_MOLECULAR_FORMULA>
C42H82NO8P

> <PUBCHEM_MOLECULAR_WEIGHT>
760.1

> <PUBCHEM_SMILES>
CCCCCCCCCCCCCCCC(=O)O[C@H](COC(=O)CCCCCCC/C=C\CCCCCCCC)COP(=O)([O-])OCC[N+](C)(C)C

> <PUBCHEM_OPENEYE_CAN_SMILES>
CCCCCCCCCCCCCCCC(=O)OC(COC(=O)CCCCCCCC=CCCCCCCCC)COP(=O)([O-])OCC[N+](C)(C)C

> <PUBCHEM_OPENEYE_ISO_SMILES>
CCCCCCCCCCCCCCCC(=O)O[C@H](COC(=O)CCCCCCC/C=C\CCCCCCCC)COP(=O)([O-])OCC[N+](C)(C)C

> <PUBCHEM_CACTVS_TPSA>
111

> <PUBCHEM_MONOISOTOPIC_WEIGHT>
759.57780557

> <PUBCHEM_TOTAL_CHARGE>
0

> <PUBCHEM_HEAVY_ATOM_COUNT>
52

> <PUBCHEM_ATOM_DEF_STEREO_COUNT>
1

> <PUBCHEM_ATOM_UDEF_STEREO_COUNT>
0

> <PUBCHEM_BOND_DEF_STEREO_COUNT>
1

> <PUBCHEM_BOND_UDEF_STEREO_COUNT>
0

> <PUBCHEM_ISOTOPIC_ATOM_COUNT>
0

> <PUBCHEM_COMPONENT_COUNT>
1

> <PUBCHEM_CACTVS_TAUTO_COUNT>
-1

> <PUBCHEM_COORDINATE_TYPE>
1
5
255

> <PUBCHEM_BONDANNOTATIONS>
40  3  5

$$$$
